 Entering Gaussian System, Link 0=g16
 Input=C7H12_mol12_conf1_dft_g16.com
 Output=C7H12_mol12_conf1_dft_g16.log
 Initial command:
 /home/gmgroup/apps/G16.C01/HASWELL/g16/l1.exe "/scratch/emmanous/7603389.pbs01/Gau-3015094.inp" -scrdir="/scratch/emmanous/7603389.pbs01/"
 Entering Link 1 = /home/gmgroup/apps/G16.C01/HASWELL/g16/l1.exe PID=   3015095.
  
 Copyright (c) 1988-2019, Gaussian, Inc.  All Rights Reserved.
  
 This is part of the Gaussian(R) 16 program.  It is based on
 the Gaussian(R) 09 system (copyright 2009, Gaussian, Inc.),
 the Gaussian(R) 03 system (copyright 2003, Gaussian, Inc.),
 the Gaussian(R) 98 system (copyright 1998, Gaussian, Inc.),
 the Gaussian(R) 94 system (copyright 1995, Gaussian, Inc.),
 the Gaussian 92(TM) system (copyright 1992, Gaussian, Inc.),
 the Gaussian 90(TM) system (copyright 1990, Gaussian, Inc.),
 the Gaussian 88(TM) system (copyright 1988, Gaussian, Inc.),
 the Gaussian 86(TM) system (copyright 1986, Carnegie Mellon
 University), and the Gaussian 82(TM) system (copyright 1983,
 Carnegie Mellon University). Gaussian is a federally registered
 trademark of Gaussian, Inc.
  
 This software contains proprietary and confidential information,
 including trade secrets, belonging to Gaussian, Inc.
  
 This software is provided under written license and may be
 used, copied, transmitted, or stored only in accord with that
 written license.
  
 The following legend is applicable only to US Government
 contracts under FAR:
  
                    RESTRICTED RIGHTS LEGEND
  
 Use, reproduction and disclosure by the US Government is
 subject to restrictions as set forth in subparagraphs (a)
 and (c) of the Commercial Computer Software - Restricted
 Rights clause in FAR 52.227-19.
  
 Gaussian, Inc.
 340 Quinnipiac St., Bldg. 40, Wallingford CT 06492
  
  
 ---------------------------------------------------------------
 Warning -- This program may not be used in any manner that
 competes with the business of Gaussian, Inc. or will provide
 assistance to any competitor of Gaussian, Inc.  The licensee
 of this program is prohibited from giving any competitor of
 Gaussian, Inc. access to this program.  By using this program,
 the user acknowledges that Gaussian, Inc. is engaged in the
 business of creating and licensing software in the field of
 computational chemistry and represents and warrants to the
 licensee that it is not a competitor of Gaussian, Inc. and that
 it will not use this program in any manner prohibited above.
 ---------------------------------------------------------------
  

 Cite this work as:
 Gaussian 16, Revision C.01,
 M. J. Frisch, G. W. Trucks, H. B. Schlegel, G. E. Scuseria, 
 M. A. Robb, J. R. Cheeseman, G. Scalmani, V. Barone, 
 G. A. Petersson, H. Nakatsuji, X. Li, M. Caricato, A. V. Marenich, 
 J. Bloino, B. G. Janesko, R. Gomperts, B. Mennucci, H. P. Hratchian, 
 J. V. Ortiz, A. F. Izmaylov, J. L. Sonnenberg, D. Williams-Young, 
 F. Ding, F. Lipparini, F. Egidi, J. Goings, B. Peng, A. Petrone, 
 T. Henderson, D. Ranasinghe, V. G. Zakrzewski, J. Gao, N. Rega, 
 G. Zheng, W. Liang, M. Hada, M. Ehara, K. Toyota, R. Fukuda, 
 J. Hasegawa, M. Ishida, T. Nakajima, Y. Honda, O. Kitao, H. Nakai, 
 T. Vreven, K. Throssell, J. A. Montgomery, Jr., J. E. Peralta, 
 F. Ogliaro, M. J. Bearpark, J. J. Heyd, E. N. Brothers, K. N. Kudin, 
 V. N. Staroverov, T. A. Keith, R. Kobayashi, J. Normand, 
 K. Raghavachari, A. P. Rendell, J. C. Burant, S. S. Iyengar, 
 J. Tomasi, M. Cossi, J. M. Millam, M. Klene, C. Adamo, R. Cammi, 
 J. W. Ochterski, R. L. Martin, K. Morokuma, O. Farkas, 
 J. B. Foresman, and D. J. Fox, Gaussian, Inc., Wallingford CT, 2019.
 
 ******************************************
 Gaussian 16:  ES64L-G16RevC.01  3-Jul-2019
                 6-Jun-2025 
 ******************************************
 %mem=16000MB
 %nprocshared=8
 Will use up to    8 processors via shared memory.
 ----------------------------------------------------------------------
 # b3lyp/def2tzvp int(grid=ultrafine) symm=(follow,loose) EmpiricalDisp
 ersion=GD3BJ
 ----------------------------------------------------------------------
 1/38=1,172=1/1;
 2/12=2,17=4,18=3,40=1/2;
 3/5=44,7=101,11=2,25=1,30=1,74=-5,75=-5,124=41/1,2,3;
 4//1;
 5/5=2,38=5/2;
 6/7=2,8=2,9=2,10=2,28=1/1;
 99/5=1,9=1/99;
 ----------------------------------------
 b3lyp-d3bj optimized geometry using Gaussian
 ----------------------------------------
 Symbolic Z-matrix:
 Charge =  0 Multiplicity = 1
 C                    -1.23904   0.10098  -0.1588 
 C                    -2.53649   0.177    -0.0767 
 C                     0.0589    0.01967  -0.25301 
 C                     0.70445  -0.99593  -1.17464 
 C                     1.41547  -2.12854  -0.42777 
 C                     0.98674   0.91573   0.53893 
 C                     0.30042   1.94139   1.43083 
 H                    -3.10945   0.8337   -0.72319 
 H                    -3.09608  -0.41308   0.64168 
 H                     1.42589  -0.47593  -1.81456 
 H                    -0.05743  -1.41618  -1.83191 
 H                     2.22044  -1.75305   0.20559 
 H                     1.85336  -2.83797  -1.13243 
 H                     0.71274  -2.67066   0.20745 
 H                     1.64693   1.42409  -0.17377 
 H                     1.64413   0.2847    1.14584 
 H                    -0.33404   2.60946   0.84662 
 H                     1.03938   2.54713   1.95762 
 H                    -0.33295   1.45499   2.17405 
 
                          Input orientation:                          
 ---------------------------------------------------------------------
 Center     Atomic      Atomic             Coordinates (Angstroms)
 Number     Number       Type             X           Y           Z
 ---------------------------------------------------------------------
      1          6           0       -1.239036    0.100981   -0.158803
      2          6           0       -2.536491    0.177001   -0.076702
      3          6           0        0.058901    0.019669   -0.253010
      4          6           0        0.704454   -0.995925   -1.174637
      5          6           0        1.415474   -2.128540   -0.427766
      6          6           0        0.986737    0.915730    0.538927
      7          6           0        0.300420    1.941390    1.430827
      8          1           0       -3.109452    0.833703   -0.723191
      9          1           0       -3.096080   -0.413077    0.641678
     10          1           0        1.425894   -0.475926   -1.814558
     11          1           0       -0.057433   -1.416183   -1.831908
     12          1           0        2.220444   -1.753050    0.205590
     13          1           0        1.853364   -2.837971   -1.132430
     14          1           0        0.712741   -2.670660    0.207447
     15          1           0        1.646934    1.424092   -0.173766
     16          1           0        1.644128    0.284702    1.145843
     17          1           0       -0.334042    2.609461    0.846622
     18          1           0        1.039382    2.547128    1.957618
     19          1           0       -0.332947    1.454987    2.174054
 ---------------------------------------------------------------------
                    Distance matrix (angstroms):
                    1          2          3          4          5
     1  C    0.000000
     2  C    1.302271   0.000000
     3  C    1.303889   2.606127   0.000000
     4  C    2.451994   3.617311   1.515772   0.000000
     5  C    3.477000   4.588768   2.546690   1.531725   0.000000
     6  C    2.470771   3.652103   1.513595   2.582714   3.222715
     7  C    2.878186   3.665212   2.566447   3.947088   4.611078
     8  H    2.086593   1.085122   3.304873   4.254083   5.416375
     9  H    2.086537   1.085081   3.307815   4.252384   4.943748
    10  H    3.190015   4.375723   2.133710   1.095616   2.157414
    11  H    2.548971   3.429973   2.137317   1.090456   2.156043
    12  H    3.941854   5.141324   2.832863   2.185518   1.090921
    13  H    4.375880   5.429129   3.487059   2.171384   1.091600
    14  H    3.409628   4.329829   2.806670   2.171396   1.091432
    15  H    3.174850   4.366429   2.121446   2.783252   3.569213
    16  H    3.169935   4.357039   2.130722   2.812049   2.890029
    17  H    2.849976   3.408837   2.840883   4.261780   5.208985
    18  H    3.956521   4.747929   3.498038   4.740931   5.262449
    19  H    2.845444   3.399229   2.846809   4.277488   4.761104
                    6          7          8          9         10
     6  C    0.000000
     7  C    1.522661   0.000000
     8  H    4.287008   4.182582   0.000000
     9  H    4.294843   4.207432   1.848650   0.000000
    10  H    2.769198   4.200313   4.845160   5.146387   0.000000
    11  H    3.485537   4.695401   3.950451   4.044530   1.756315
    12  H    2.958975   4.340113   5.996809   5.500103   2.518601
    13  H    4.199375   5.641295   6.186939   5.790040   2.495453
    14  H    3.612083   4.789329   5.268378   4.448860   3.068216
    15  H    1.096459   2.157641   4.824276   5.151342   2.520144
    16  H    1.094854   2.152065   5.137238   4.817743   3.064336
    17  H    2.169760   1.090943   3.649730   4.099584   4.438341
    18  H    2.162618   1.091097   5.228325   5.253243   4.849491
    19  H    2.169333   1.090930   4.060665   3.670524   4.767701
                   11         12         13         14         15
    11  H    0.000000
    12  H    3.074671   0.000000
    13  H    2.482317   1.761278   0.000000
    14  H    2.515124   1.764987   1.767564   0.000000
    15  H    3.704249   3.250701   4.373423   4.217231   0.000000
    16  H    3.828227   2.317035   3.871097   3.237628   1.743441
    17  H    4.843227   5.095863   6.194829   5.420699   2.523996
    18  H    5.592079   4.791246   6.261809   5.513176   2.484578
    19  H    4.936320   4.548204   5.843140   4.688493   3.071342
                   16         17         18         19
    16  H    0.000000
    17  H    3.067115   0.000000
    18  H    2.478562   1.767623   0.000000
    19  H    2.517064   1.759229   1.767174   0.000000
 Stoichiometry    C7H12
 Framework group  C1[X(C7H12)]
 Deg. of freedom    51
 Full point group                 C1      NOp   1
 Largest Abelian subgroup         C1      NOp   1
 Largest concise Abelian subgroup C1      NOp   1
                         Standard orientation:                         
 ---------------------------------------------------------------------
 Center     Atomic      Atomic             Coordinates (Angstroms)
 Number     Number       Type             X           Y           Z
 ---------------------------------------------------------------------
      1          6           0        0.715628    1.069781   -0.036717
      2          6           0        1.517695    2.076398    0.161576
      3          6           0       -0.095127    0.069581   -0.242635
      4          6           0       -1.550838    0.313494   -0.587564
      5          6           0       -2.515482   -0.080136    0.535245
      6          6           0        0.356363   -1.372117   -0.149722
      7          6           0        1.831120   -1.575378    0.170080
      8          1           0        2.086909    2.518065   -0.649852
      9          1           0        1.648888    2.513212    1.146149
     10          1           0       -1.794775   -0.257071   -1.490517
     11          1           0       -1.687885    1.367428   -0.831563
     12          1           0       -2.444506   -1.141714    0.776333
     13          1           0       -3.547588    0.124092    0.244317
     14          1           0       -2.300151    0.486084    1.443127
     15          1           0        0.110645   -1.859705   -1.100565
     16          1           0       -0.254728   -1.879170    0.604049
     17          1           0        2.465682   -1.111402   -0.586368
     18          1           0        2.071603   -2.638848    0.211191
     19          1           0        2.089747   -1.130713    1.132116
 ---------------------------------------------------------------------
 Rotational constants (GHZ):           2.9406834           2.0005998           1.3141167
 Standard basis: def2TZVP (5D, 7F)
 There are   324 symmetry adapted cartesian basis functions of A   symmetry.
 There are   289 symmetry adapted basis functions of A   symmetry.
   289 basis functions,   453 primitive gaussians,   324 cartesian basis functions
    27 alpha electrons       27 beta electrons
       nuclear repulsion energy       287.9511249564 Hartrees.
 NAtoms=   19 NActive=   19 NUniq=   19 SFac= 1.00D+00 NAtFMM=   60 NAOKFM=F Big=F
 Integral buffers will be    131072 words long.
 Raffenetti 2 integral format.
 Two-electron integral symmetry is turned on.
 Nuclear repulsion after empirical dispersion term =      287.9247097068 Hartrees.
 One-electron integrals computed using PRISM.
   1 Symmetry operations used in ECPInt.
 ECPInt:  NShTT=    7875 NPrTT=   22768 LenC2=    7734 LenP2D=   18034.
 LDataN:  DoStor=T MaxTD1= 6 Len=  172
 NBasis=   289 RedAO= T EigKep=  2.28D-05  NBF=   289
 NBsUse=   289 1.00D-06 EigRej= -1.00D+00 NBFU=   289
 ExpMin= 9.52D-02 ExpMax= 1.36D+04 ExpMxC= 4.63D+02 IAcc=3 IRadAn=         5 AccDes= 0.00D+00
 Harris functional with IExCor=  402 and IRadAn=       5 diagonalized for initial guess.
 HarFok:  IExCor=  402 AccDes= 0.00D+00 IRadAn=         5 IDoV= 1 UseB2=F ITyADJ=14
 ICtDFT=  3500011 ScaDFX=  1.000000  1.000000  1.000000  1.000000
 FoFCou: FMM=F IPFlag=           0 FMFlag=      100000 FMFlg1=           0
         NFxFlg=           0 DoJE=T BraDBF=F KetDBF=T FulRan=T
         wScrn=  0.000000 ICntrl=       500 IOpCl=  0 I1Cent=   200000004 NGrid=           0
         NMat0=    1 NMatS0=      1 NMatT0=    0 NMatD0=    1 NMtDS0=    0 NMtDT0=    0
 Petite list used in FoFCou.
 Requested convergence on RMS density matrix=1.00D-08 within 128 cycles.
 Requested convergence on MAX density matrix=1.00D-06.
 Requested convergence on             energy=1.00D-06.
 No special actions if energy rises.
 Integral accuracy reduced to 1.0D-05 until final iterations.
 Initial convergence to 1.0D-05 achieved.  Increase integral accuracy.
 SCF Done:  E(RB3LYP) =  -274.052927965     A.U. after   13 cycles
            NFock= 13  Conv=0.62D-08     -V/T= 2.0057

 **********************************************************************

            Population analysis using the SCF Density.

 **********************************************************************

 Orbital symmetries:
       Occupied  (A) (A) (A) (A) (A) (A) (A) (A) (A) (A) (A) (A)
                 (A) (A) (A) (A) (A) (A) (A) (A) (A) (A) (A) (A)
                 (A) (A) (A)
       Virtual   (A) (A) (A) (A) (A) (A) (A) (A) (A) (A) (A) (A)
                 (A) (A) (A) (A) (A) (A) (A) (A) (A) (A) (A) (A)
                 (A) (A) (A) (A) (A) (A) (A) (A) (A) (A) (A) (A)
                 (A) (A) (A) (A) (A) (A) (A) (A) (A) (A) (A) (A)
                 (A) (A) (A) (A) (A) (A) (A) (A) (A) (A) (A) (A)
                 (A) (A) (A) (A) (A) (A) (A) (A) (A) (A) (A) (A)
                 (A) (A) (A) (A) (A) (A) (A) (A) (A) (A) (A) (A)
                 (A) (A) (A) (A) (A) (A) (A) (A) (A) (A) (A) (A)
                 (A) (A) (A) (A) (A) (A) (A) (A) (A) (A) (A) (A)
                 (A) (A) (A) (A) (A) (A) (A) (A) (A) (A) (A) (A)
                 (A) (A) (A) (A) (A) (A) (A) (A) (A) (A) (A) (A)
                 (A) (A) (A) (A) (A) (A) (A) (A) (A) (A) (A) (A)
                 (A) (A) (A) (A) (A) (A) (A) (A) (A) (A) (A) (A)
                 (A) (A) (A) (A) (A) (A) (A) (A) (A) (A) (A) (A)
                 (A) (A) (A) (A) (A) (A) (A) (A) (A) (A) (A) (A)
                 (A) (A) (A) (A) (A) (A) (A) (A) (A) (A) (A) (A)
                 (A) (A) (A) (A) (A) (A) (A) (A) (A) (A) (A) (A)
                 (A) (A) (A) (A) (A) (A) (A) (A) (A) (A) (A) (A)
                 (A) (A) (A) (A) (A) (A) (A) (A) (A) (A) (A) (A)
                 (A) (A) (A) (A) (A) (A) (A) (A) (A) (A) (A) (A)
                 (A) (A) (A) (A) (A) (A) (A) (A) (A) (A) (A) (A)
                 (A) (A) (A) (A) (A) (A) (A) (A) (A) (A)
 The electronic state is 1-A.
 Alpha  occ. eigenvalues --  -10.18090 -10.17632 -10.17535 -10.17529 -10.16917
 Alpha  occ. eigenvalues --  -10.16252 -10.15763  -0.82947  -0.75909  -0.75421
 Alpha  occ. eigenvalues --   -0.68865  -0.62147  -0.61012  -0.49314  -0.46381
 Alpha  occ. eigenvalues --   -0.46192  -0.44890  -0.43484  -0.42898  -0.39204
 Alpha  occ. eigenvalues --   -0.38034  -0.36438  -0.35307  -0.34933  -0.33481
 Alpha  occ. eigenvalues --   -0.26323  -0.24487
 Alpha virt. eigenvalues --    0.01235   0.01842   0.03448   0.05511   0.06678
 Alpha virt. eigenvalues --    0.07281   0.09302   0.10521   0.10758   0.11400
 Alpha virt. eigenvalues --    0.11934   0.12787   0.14051   0.14766   0.16933
 Alpha virt. eigenvalues --    0.17094   0.17748   0.18652   0.19046   0.20102
 Alpha virt. eigenvalues --    0.21964   0.22914   0.23235   0.24845   0.26425
 Alpha virt. eigenvalues --    0.27176   0.27710   0.31155   0.33217   0.34278
 Alpha virt. eigenvalues --    0.35607   0.36652   0.39553   0.39916   0.40610
 Alpha virt. eigenvalues --    0.41670   0.42142   0.42871   0.43561   0.44609
 Alpha virt. eigenvalues --    0.45057   0.45570   0.45848   0.46031   0.47167
 Alpha virt. eigenvalues --    0.48108   0.48662   0.49126   0.49646   0.51128
 Alpha virt. eigenvalues --    0.52462   0.53859   0.55673   0.57154   0.58145
 Alpha virt. eigenvalues --    0.59241   0.61652   0.65228   0.66734   0.70341
 Alpha virt. eigenvalues --    0.73513   0.75132   0.76065   0.80684   0.81822
 Alpha virt. eigenvalues --    0.82769   0.85309   0.86127   0.88980   0.90266
 Alpha virt. eigenvalues --    0.92015   0.93732   0.95699   0.98473   0.99092
 Alpha virt. eigenvalues --    1.02033   1.03173   1.05054   1.07764   1.08930
 Alpha virt. eigenvalues --    1.09925   1.10535   1.12595   1.16443   1.18145
 Alpha virt. eigenvalues --    1.19081   1.21591   1.23466   1.26374   1.28733
 Alpha virt. eigenvalues --    1.30456   1.33904   1.42654   1.44296   1.47150
 Alpha virt. eigenvalues --    1.48059   1.50949   1.51700   1.52266   1.52757
 Alpha virt. eigenvalues --    1.54916   1.55414   1.56502   1.57702   1.58430
 Alpha virt. eigenvalues --    1.59780   1.60562   1.62058   1.63465   1.64997
 Alpha virt. eigenvalues --    1.69019   1.69780   1.72998   1.76165   1.77955
 Alpha virt. eigenvalues --    1.79056   1.80640   1.81576   1.82926   1.84280
 Alpha virt. eigenvalues --    1.86600   1.90517   1.92923   1.93018   1.94897
 Alpha virt. eigenvalues --    1.97065   2.01001   2.02191   2.04263   2.07484
 Alpha virt. eigenvalues --    2.10304   2.12011   2.16914   2.20598   2.23704
 Alpha virt. eigenvalues --    2.25418   2.29919   2.31679   2.32787   2.33521
 Alpha virt. eigenvalues --    2.34696   2.37610   2.38740   2.40736   2.42391
 Alpha virt. eigenvalues --    2.43311   2.45614   2.46211   2.47299   2.49467
 Alpha virt. eigenvalues --    2.52572   2.54767   2.54817   2.57210   2.58106
 Alpha virt. eigenvalues --    2.58498   2.59666   2.60963   2.63015   2.64601
 Alpha virt. eigenvalues --    2.66685   2.67541   2.69164   2.71994   2.72369
 Alpha virt. eigenvalues --    2.74129   2.78235   2.79522   2.80010   2.83471
 Alpha virt. eigenvalues --    2.86427   2.87545   2.93358   2.93715   2.95870
 Alpha virt. eigenvalues --    2.96540   2.99235   3.02090   3.02797   3.03671
 Alpha virt. eigenvalues --    3.05057   3.05927   3.07835   3.08677   3.12220
 Alpha virt. eigenvalues --    3.13332   3.17011   3.17133   3.20439   3.21606
 Alpha virt. eigenvalues --    3.22608   3.23227   3.23822   3.25213   3.26344
 Alpha virt. eigenvalues --    3.27959   3.30858   3.31343   3.34532   3.35427
 Alpha virt. eigenvalues --    3.37347   3.37975   3.40588   3.41973   3.44174
 Alpha virt. eigenvalues --    3.47878   3.49766   3.51006   3.53216   3.55155
 Alpha virt. eigenvalues --    3.56070   3.59292   3.61793   3.64911   3.68324
 Alpha virt. eigenvalues --    3.73022   3.75131   3.80250   3.80502   3.85396
 Alpha virt. eigenvalues --    3.86343   3.90152   3.92603   3.94379   3.95056
 Alpha virt. eigenvalues --    3.99026   4.06102   4.08624   4.10120   4.11315
 Alpha virt. eigenvalues --    4.14714   4.17986   4.19578   4.26567   4.30947
 Alpha virt. eigenvalues --    4.35230   4.38219   4.39827   4.43322   4.49387
 Alpha virt. eigenvalues --    4.50868   4.54179   4.57616   4.60665   4.68479
 Alpha virt. eigenvalues --    4.69094   4.77615   4.82608   4.85737   4.96185
 Alpha virt. eigenvalues --    5.03626   5.06221   5.26866   5.34184   5.41040
 Alpha virt. eigenvalues --   22.29414  22.34279  22.44297  22.51609  22.61170
 Alpha virt. eigenvalues --   22.79072  23.59642
          Condensed to atoms (all electrons):
               1          2          3          4          5          6
     1  C    4.887474   0.643517   0.664644  -0.063854  -0.000119  -0.106473
     2  C    0.643517   4.891059  -0.031598  -0.009524   0.001025  -0.014192
     3  C    0.664644  -0.031598   5.117982   0.300551  -0.063697   0.338468
     4  C   -0.063854  -0.009524   0.300551   4.996224   0.285371  -0.079590
     5  C   -0.000119   0.001025  -0.063697   0.285371   4.995335   0.007290
     6  C   -0.106473  -0.014192   0.338468  -0.079590   0.007290   5.012731
     7  C   -0.017561  -0.001473  -0.042801   0.007506  -0.000013   0.318391
     8  H   -0.049585   0.405661  -0.002380  -0.000395  -0.000247  -0.000204
     9  H   -0.049624   0.412373  -0.008651   0.000027   0.000587  -0.000165
    10  H    0.000442   0.000438  -0.043069   0.402621  -0.057654  -0.001242
    11  H    0.007689   0.004742  -0.057549   0.414070  -0.030601   0.006914
    12  H    0.005422   0.000147  -0.006737  -0.043986   0.413953  -0.003169
    13  H   -0.001294  -0.000134   0.013701  -0.038136   0.397034  -0.000551
    14  H    0.002930   0.000346  -0.000574  -0.045197   0.402650   0.001943
    15  H   -0.002684   0.000502  -0.046213   0.001024  -0.002768   0.393759
    16  H   -0.000588   0.000730  -0.056726   0.003874   0.004499   0.403779
    17  H    0.003046   0.001344  -0.006508   0.000246  -0.000010  -0.039629
    18  H    0.000753   0.000206   0.012387  -0.000387   0.000009  -0.049319
    19  H    0.004309   0.001545  -0.008052   0.000025  -0.000021  -0.037326
               7          8          9         10         11         12
     1  C   -0.017561  -0.049585  -0.049624   0.000442   0.007689   0.005422
     2  C   -0.001473   0.405661   0.412373   0.000438   0.004742   0.000147
     3  C   -0.042801  -0.002380  -0.008651  -0.043069  -0.057549  -0.006737
     4  C    0.007506  -0.000395   0.000027   0.402621   0.414070  -0.043986
     5  C   -0.000013  -0.000247   0.000587  -0.057654  -0.030601   0.413953
     6  C    0.318391  -0.000204  -0.000165  -0.001242   0.006914  -0.003169
     7  C    4.895452   0.000176   0.000045   0.000286  -0.000427   0.000139
     8  H    0.000176   0.564751  -0.043011   0.000235   0.000201   0.000002
     9  H    0.000045  -0.043011   0.564562  -0.000108  -0.000293  -0.000008
    10  H    0.000286   0.000235  -0.000108   0.632081  -0.026325  -0.004407
    11  H   -0.000427   0.000201  -0.000293  -0.026325   0.582813   0.006414
    12  H    0.000139   0.000002  -0.000008  -0.004407   0.006414   0.580030
    13  H    0.000019   0.000007  -0.000019  -0.002290  -0.005290  -0.026600
    14  H   -0.000197   0.000040  -0.000138   0.009097  -0.003326  -0.028122
    15  H   -0.030982   0.000270  -0.000121   0.006498   0.000252   0.000848
    16  H   -0.032328  -0.000127   0.000272  -0.001707  -0.000373  -0.001064
    17  H    0.412692  -0.000405   0.000305  -0.000023  -0.000039  -0.000027
    18  H    0.412654  -0.000006  -0.000006  -0.000035   0.000012   0.000009
    19  H    0.410359   0.000301  -0.000372   0.000004   0.000021   0.000062
              13         14         15         16         17         18
     1  C   -0.001294   0.002930  -0.002684  -0.000588   0.003046   0.000753
     2  C   -0.000134   0.000346   0.000502   0.000730   0.001344   0.000206
     3  C    0.013701  -0.000574  -0.046213  -0.056726  -0.006508   0.012387
     4  C   -0.038136  -0.045197   0.001024   0.003874   0.000246  -0.000387
     5  C    0.397034   0.402650  -0.002768   0.004499  -0.000010   0.000009
     6  C   -0.000551   0.001943   0.393759   0.403779  -0.039629  -0.049319
     7  C    0.000019  -0.000197  -0.030982  -0.032328   0.412692   0.412654
     8  H    0.000007   0.000040   0.000270  -0.000127  -0.000405  -0.000006
     9  H   -0.000019  -0.000138  -0.000121   0.000272   0.000305  -0.000006
    10  H   -0.002290   0.009097   0.006498  -0.001707  -0.000023  -0.000035
    11  H   -0.005290  -0.003326   0.000252  -0.000373  -0.000039   0.000012
    12  H   -0.026600  -0.028122   0.000848  -0.001064  -0.000027   0.000009
    13  H    0.577548  -0.023871   0.000057  -0.000159   0.000002  -0.000001
    14  H   -0.023871   0.572652   0.000244  -0.000512   0.000002   0.000001
    15  H    0.000057   0.000244   0.641608  -0.048358  -0.007065  -0.004904
    16  H   -0.000159  -0.000512  -0.048358   0.637594   0.008757  -0.004461
    17  H    0.000002   0.000002  -0.007065   0.008757   0.573911  -0.028293
    18  H   -0.000001   0.000001  -0.004904  -0.004461  -0.028293   0.580758
    19  H   -0.000000   0.000002   0.008621  -0.007094  -0.027596  -0.027898
              19
     1  C    0.004309
     2  C    0.001545
     3  C   -0.008052
     4  C    0.000025
     5  C   -0.000021
     6  C   -0.037326
     7  C    0.410359
     8  H    0.000301
     9  H   -0.000372
    10  H    0.000004
    11  H    0.000021
    12  H    0.000062
    13  H   -0.000000
    14  H    0.000002
    15  H    0.008621
    16  H   -0.007094
    17  H   -0.027596
    18  H   -0.027898
    19  H    0.573950
 Mulliken charges:
               1
     1  C    0.071558
     2  C   -0.306714
     3  C   -0.073181
     4  C   -0.130470
     5  C   -0.352624
     6  C   -0.151414
     7  C   -0.331936
     8  H    0.124717
     9  H    0.124341
    10  H    0.085156
    11  H    0.101093
    12  H    0.107090
    13  H    0.109977
    14  H    0.112031
    15  H    0.089411
    16  H    0.093990
    17  H    0.109292
    18  H    0.108521
    19  H    0.109162
 Sum of Mulliken charges =  -0.00000
 Mulliken charges with hydrogens summed into heavy atoms:
               1
     1  C    0.071558
     2  C   -0.057656
     3  C   -0.073181
     4  C    0.055779
     5  C   -0.023526
     6  C    0.031987
     7  C   -0.004961
 Electronic spatial extent (au):  <R**2>=            992.0378
 Charge=             -0.0000 electrons
 Dipole moment (field-independent basis, Debye):
    X=             -0.4125    Y=             -0.4771    Z=             -0.0866  Tot=              0.6366
 Quadrupole moment (field-independent basis, Debye-Ang):
   XX=            -45.5550   YY=            -44.8544   ZZ=            -45.5815
   XY=              0.9683   XZ=              0.2885   YZ=              0.5001
 Traceless Quadrupole moment (field-independent basis, Debye-Ang):
   XX=             -0.2247   YY=              0.4759   ZZ=             -0.2512
   XY=              0.9683   XZ=              0.2885   YZ=              0.5001
 Octapole moment (field-independent basis, Debye-Ang**2):
  XXX=             -4.5835  YYY=             -2.6080  ZZZ=              0.5901  XYY=              3.7360
  XXY=              3.6077  XXZ=             -2.6990  XZZ=              0.9153  YZZ=              0.5584
  YYZ=              0.9422  XYZ=              0.1132
 Hexadecapole moment (field-independent basis, Debye-Ang**3):
 XXXX=           -777.9047 YYYY=           -515.7394 ZZZZ=           -124.0382 XXXY=              1.7979
 XXXZ=              0.6441 YYYX=              9.2937 YYYZ=              1.7543 ZZZX=              2.4091
 ZZZY=              4.6272 XXYY=           -205.3237 XXZZ=           -148.1839 YYZZ=           -101.9255
 XXYZ=             -1.4491 YYXZ=              0.1080 ZZXY=              3.7728
 N-N= 2.879247097068D+02 E-N=-1.209963355658D+03  KE= 2.724998790538D+02
 Unable to Open any file for archive entry.
 1\1\GINC-CFM010\SP\RB3LYP\def2TZVP\C7H12\EMMANOUS\06-Jun-2025\0\\# b3l
 yp/def2tzvp int(grid=ultrafine) symm=(follow,loose) EmpiricalDispersio
 n=GD3BJ\\b3lyp-d3bj optimized geometry using Gaussian\\0,1\C,0,-1.239036,0
 .100981,-0.158803\C,0,-2.536491,0.177001,-0.076702\C,0,0.058901,0.0196
 69,-0.25301\C,0,0.704454,-0.995925,-1.174637\C,0,1.415474,-2.12854,-0.
 427766\C,0,0.986737,0.91573,0.538927\C,0,0.30042,1.94139,1.430827\H,0,
 -3.109452,0.833703,-0.723191\H,0,-3.09608,-0.413077,0.641678\H,0,1.425
 894,-0.475926,-1.814558\H,0,-0.057433,-1.416183,-1.831908\H,0,2.220444
 ,-1.75305,0.20559\H,0,1.853364,-2.837971,-1.13243\H,0,0.712741,-2.6706
 6,0.207447\H,0,1.646934,1.424092,-0.173766\H,0,1.644128,0.284702,1.145
 843\H,0,-0.334042,2.609461,0.846622\H,0,1.039382,2.547128,1.957618\H,0
 ,-0.332947,1.454987,2.174054\\Version=ES64L-G16RevC.01\State=1-A\HF=-2
 74.052928\RMSD=6.162e-09\Dipole=0.248569,-0.0251779,-0.0175357\Quadrup
 ole=0.9504349,-0.5377142,-0.4127207,0.1185563,-0.2557692,-0.1887638\PG
 =C01 [X(C7H12)]\\@
 The archive entry for this job was punched.


 OLD HORSE! OLD HORSE! WHAT BROUGHT YOU HERE?
 FROM SACARAP' TO PORTLAND PIER
 I'VE CARTED STONE THIS MANY A YEAR;
 TILL, KILLED BY BLOWS AND SORE ABUSE,
 THEY SALTED ME DOWN FOR SAILORS' USE.
 THE SAILORS THEY DO ME DESPISE;
 THEY TURN ME OVER AND DAMN MY EYES;
 CUT OFF MY MEAT, AND SCRAPE MY BONES,
 AND PITCH ME OVER TO DAVY JONES.

    SAILORS' COMPLAINT ABOUT THE BEEF
    SERVED ON SHIPBOARD, CIRCA 1835.
 Job cpu time:       0 days  0 hours  4 minutes 46.8 seconds.
 Elapsed time:       0 days  0 hours  0 minutes 36.4 seconds.
 File lengths (MBytes):  RWF=     50 Int=      0 D2E=      0 Chk=      6 Scr=      1
 Normal termination of Gaussian 16 at Fri Jun  6 20:54:59 2025.
