 Entering Gaussian System, Link 0=g16
 Input=C7H12_mol126_conf3_dft_g16.com
 Output=C7H12_mol126_conf3_dft_g16.log
 Initial command:
 /home/gmgroup/apps/G16.C01/HASWELL/g16/l1.exe "/scratch/emmanous/7603388.pbs01/Gau-957022.inp" -scrdir="/scratch/emmanous/7603388.pbs01/"
 Entering Link 1 = /home/gmgroup/apps/G16.C01/HASWELL/g16/l1.exe PID=    957023.
  
 Copyright (c) 1988-2019, Gaussian, Inc.  All Rights Reserved.
  
 This is part of the Gaussian(R) 16 program.  It is based on
 the Gaussian(R) 09 system (copyright 2009, Gaussian, Inc.),
 the Gaussian(R) 03 system (copyright 2003, Gaussian, Inc.),
 the Gaussian(R) 98 system (copyright 1998, Gaussian, Inc.),
 the Gaussian(R) 94 system (copyright 1995, Gaussian, Inc.),
 the Gaussian 92(TM) system (copyright 1992, Gaussian, Inc.),
 the Gaussian 90(TM) system (copyright 1990, Gaussian, Inc.),
 the Gaussian 88(TM) system (copyright 1988, Gaussian, Inc.),
 the Gaussian 86(TM) system (copyright 1986, Carnegie Mellon
 University), and the Gaussian 82(TM) system (copyright 1983,
 Carnegie Mellon University). Gaussian is a federally registered
 trademark of Gaussian, Inc.
  
 This software contains proprietary and confidential information,
 including trade secrets, belonging to Gaussian, Inc.
  
 This software is provided under written license and may be
 used, copied, transmitted, or stored only in accord with that
 written license.
  
 The following legend is applicable only to US Government
 contracts under FAR:
  
                    RESTRICTED RIGHTS LEGEND
  
 Use, reproduction and disclosure by the US Government is
 subject to restrictions as set forth in subparagraphs (a)
 and (c) of the Commercial Computer Software - Restricted
 Rights clause in FAR 52.227-19.
  
 Gaussian, Inc.
 340 Quinnipiac St., Bldg. 40, Wallingford CT 06492
  
  
 ---------------------------------------------------------------
 Warning -- This program may not be used in any manner that
 competes with the business of Gaussian, Inc. or will provide
 assistance to any competitor of Gaussian, Inc.  The licensee
 of this program is prohibited from giving any competitor of
 Gaussian, Inc. access to this program.  By using this program,
 the user acknowledges that Gaussian, Inc. is engaged in the
 business of creating and licensing software in the field of
 computational chemistry and represents and warrants to the
 licensee that it is not a competitor of Gaussian, Inc. and that
 it will not use this program in any manner prohibited above.
 ---------------------------------------------------------------
  

 Cite this work as:
 Gaussian 16, Revision C.01,
 M. J. Frisch, G. W. Trucks, H. B. Schlegel, G. E. Scuseria, 
 M. A. Robb, J. R. Cheeseman, G. Scalmani, V. Barone, 
 G. A. Petersson, H. Nakatsuji, X. Li, M. Caricato, A. V. Marenich, 
 J. Bloino, B. G. Janesko, R. Gomperts, B. Mennucci, H. P. Hratchian, 
 J. V. Ortiz, A. F. Izmaylov, J. L. Sonnenberg, D. Williams-Young, 
 F. Ding, F. Lipparini, F. Egidi, J. Goings, B. Peng, A. Petrone, 
 T. Henderson, D. Ranasinghe, V. G. Zakrzewski, J. Gao, N. Rega, 
 G. Zheng, W. Liang, M. Hada, M. Ehara, K. Toyota, R. Fukuda, 
 J. Hasegawa, M. Ishida, T. Nakajima, Y. Honda, O. Kitao, H. Nakai, 
 T. Vreven, K. Throssell, J. A. Montgomery, Jr., J. E. Peralta, 
 F. Ogliaro, M. J. Bearpark, J. J. Heyd, E. N. Brothers, K. N. Kudin, 
 V. N. Staroverov, T. A. Keith, R. Kobayashi, J. Normand, 
 K. Raghavachari, A. P. Rendell, J. C. Burant, S. S. Iyengar, 
 J. Tomasi, M. Cossi, J. M. Millam, M. Klene, C. Adamo, R. Cammi, 
 J. W. Ochterski, R. L. Martin, K. Morokuma, O. Farkas, 
 J. B. Foresman, and D. J. Fox, Gaussian, Inc., Wallingford CT, 2019.
 
 ******************************************
 Gaussian 16:  ES64L-G16RevC.01  3-Jul-2019
                 6-Jun-2025 
 ******************************************
 %mem=16000MB
 %nprocshared=8
 Will use up to    8 processors via shared memory.
 ----------------------------------------------------------------------
 # b3lyp/def2tzvp int(grid=ultrafine) symm=(follow,loose) EmpiricalDisp
 ersion=GD3BJ
 ----------------------------------------------------------------------
 1/38=1,172=1/1;
 2/12=2,17=4,18=3,40=1/2;
 3/5=44,7=101,11=2,25=1,30=1,74=-5,75=-5,124=41/1,2,3;
 4//1;
 5/5=2,38=5/2;
 6/7=2,8=2,9=2,10=2,28=1/1;
 99/5=1,9=1/99;
 ----------------------------------------
 b3lyp-d3bj optimized geometry using Gaussian
 ----------------------------------------
 Symbolic Z-matrix:
 Charge =  0 Multiplicity = 1
 C                    -2.14781   0.29435   0.44269 
 C                    -0.73091   0.7923    0.14038 
 C                    -0.15831   1.57627   1.32142 
 C                     0.15569  -0.34607  -0.26601 
 C                     0.44594  -0.89561  -1.62719 
 C                     1.55391  -0.4442   -0.72761 
 C                     1.13266  -1.17802   0.50766 
 H                    -2.81353   1.12598   0.68404 
 H                    -2.13847  -0.38972   1.29461 
 H                    -2.56504  -0.24065  -0.4118 
 H                    -0.78877   1.47015  -0.72011 
 H                    -0.11591   0.95489   2.21872 
 H                    -0.78424   2.44124   1.54767 
 H                     0.85073   1.93514   1.10974 
 H                     0.19994  -0.24972  -2.46463 
 H                     0.32224  -1.9592   -1.82984 
 H                     2.30648   0.31345  -0.8678 
 H                     1.47213  -0.77495   1.45549 
 H                     1.06219  -2.26521   0.48358 
 
                          Input orientation:                          
 ---------------------------------------------------------------------
 Center     Atomic      Atomic             Coordinates (Angstroms)
 Number     Number       Type             X           Y           Z
 ---------------------------------------------------------------------
      1          6           0       -2.147808    0.294350    0.442686
      2          6           0       -0.730906    0.792297    0.140375
      3          6           0       -0.158312    1.576271    1.321418
      4          6           0        0.155691   -0.346070   -0.266014
      5          6           0        0.445944   -0.895611   -1.627187
      6          6           0        1.553907   -0.444200   -0.727614
      7          6           0        1.132660   -1.178022    0.507658
      8          1           0       -2.813529    1.125976    0.684038
      9          1           0       -2.138474   -0.389723    1.294613
     10          1           0       -2.565044   -0.240648   -0.411804
     11          1           0       -0.788769    1.470154   -0.720105
     12          1           0       -0.115906    0.954894    2.218721
     13          1           0       -0.784242    2.441242    1.547674
     14          1           0        0.850731    1.935141    1.109737
     15          1           0        0.199935   -0.249716   -2.464626
     16          1           0        0.322242   -1.959198   -1.829844
     17          1           0        2.306476    0.313450   -0.867803
     18          1           0        1.472130   -0.774952    1.455489
     19          1           0        1.062187   -2.265209    0.483584
 ---------------------------------------------------------------------
                    Distance matrix (angstroms):
                    1          2          3          4          5
     1  C    0.000000
     2  C    1.531977   0.000000
     3  C    2.524596   1.528837   0.000000
     4  C    2.493692   1.499028   2.512754   0.000000
     5  C    3.525327   2.712616   3.894817   1.496340   0.000000
     6  C    3.951930   2.739106   3.348511   1.475707   1.496859
     7  C    3.596327   2.736774   3.148800   1.498393   2.260287
     8  H    1.092262   2.178125   2.767525   3.447577   4.478028
     9  H    1.092622   2.170411   2.790500   2.775005   3.933453
    10  H    1.091083   2.176221   3.478162   2.726677   3.312428
    11  H    2.140464   1.096934   2.139288   2.096872   2.818538
    12  H    2.778353   2.173519   1.092273   2.817833   4.304771
    13  H    2.772987   2.168491   1.091400   3.455727   4.767356
    14  H    3.482584   2.178837   1.091680   2.753125   3.958252
    15  H    3.776290   2.956059   4.218613   2.201167   1.085820
    16  H    4.042774   3.544236   4.760349   2.252884   1.089766
    17  H    4.643102   3.235955   3.530239   2.328732   2.345223
    18  H    3.908085   3.006520   2.864361   2.209191   3.251232
    19  H    4.105738   3.561084   4.116862   2.250939   2.590542
                    6          7          8          9         10
     6  C    0.000000
     7  C    1.497278   0.000000
     8  H    4.851053   4.572956   0.000000
     9  H    4.210231   3.455580   1.768006   0.000000
    10  H    4.136052   3.923913   1.769259   1.765232   0.000000
    11  H    3.025382   3.494585   2.487917   3.056131   2.485366
    12  H    3.664237   3.005991   3.108326   2.598606   3.787778
    13  H    4.355416   4.225544   2.567839   3.148388   3.768732
    14  H    3.087326   3.183358   3.776608   3.791374   4.326276
    15  H    2.210944   3.250569   4.570293   4.429406   3.443729
    16  H    2.242126   2.594403   5.066652   4.275583   3.647009
    17  H    1.077055   2.343976   5.411364   4.992802   4.924090
    18  H    2.209530   1.084476   4.751372   3.634659   4.480071
    19  H    2.241621   1.089735   5.153784   3.797295   4.249397
                   11         12         13         14         15
    11  H    0.000000
    12  H    3.058584   0.000000
    13  H    2.466952   1.762444   0.000000
    14  H    2.500499   1.767800   1.766653   0.000000
    15  H    2.641750   4.846089   4.930356   4.239482   0.000000
    16  H    3.771780   5.007473   5.656484   4.907781   1.827631
    17  H    3.307616   3.975678   4.462574   2.942744   2.702687
    18  H    3.858157   2.469159   3.929837   2.801836   4.154715
    19  H    4.339106   3.842872   5.166456   4.252026   3.673912
                   16         17         18         19
    16  H    0.000000
    17  H    3.166644   0.000000
    18  H    3.676696   2.697858   0.000000
    19  H    2.448083   3.166068   1.825793   0.000000
 Stoichiometry    C7H12
 Framework group  C1[X(C7H12)]
 Deg. of freedom    51
 Full point group                 C1      NOp   1
 Largest Abelian subgroup         C1      NOp   1
 Largest concise Abelian subgroup C1      NOp   1
                         Standard orientation:                         
 ---------------------------------------------------------------------
 Center     Atomic      Atomic             Coordinates (Angstroms)
 Number     Number       Type             X           Y           Z
 ---------------------------------------------------------------------
      1          6           0       -1.809747   -1.129001    0.443184
      2          6           0       -0.966694   -0.151121   -0.381416
      3          6           0       -1.556482    1.258669   -0.336863
      4          6           0        0.464652   -0.179751    0.063011
      5          6           0        1.604060   -1.015546   -0.429158
      6          6           0        1.699026    0.478137   -0.407325
      7          6           0        1.238259    0.696562    1.000448
      8          1           0       -2.841937   -1.155294    0.086910
      9          1           0       -1.822129   -0.830313    1.494114
     10          1           0       -1.402904   -2.139841    0.387122
     11          1           0       -0.980366   -0.491298   -1.424179
     12          1           0       -1.601913    1.630630    0.689120
     13          1           0       -2.572629    1.262471   -0.735090
     14          1           0       -0.960144    1.958795   -0.925053
     15          1           0        1.467514   -1.484321   -1.399009
     16          1           0        2.201902   -1.599024    0.270648
     17          1           0        1.864346    1.182067   -1.205573
     18          1           0        0.807232    1.665077    1.229104
     19          1           0        1.802580    0.253360    1.820592
 ---------------------------------------------------------------------
 Rotational constants (GHZ):           4.3398939           2.0927932           1.7728234
 Standard basis: def2TZVP (5D, 7F)
 There are   324 symmetry adapted cartesian basis functions of A   symmetry.
 There are   289 symmetry adapted basis functions of A   symmetry.
   289 basis functions,   453 primitive gaussians,   324 cartesian basis functions
    27 alpha electrons       27 beta electrons
       nuclear repulsion energy       308.3179747084 Hartrees.
 NAtoms=   19 NActive=   19 NUniq=   19 SFac= 1.00D+00 NAtFMM=   60 NAOKFM=F Big=F
 Integral buffers will be    131072 words long.
 Raffenetti 2 integral format.
 Two-electron integral symmetry is turned on.
 Nuclear repulsion after empirical dispersion term =      308.2911029451 Hartrees.
 One-electron integrals computed using PRISM.
   1 Symmetry operations used in ECPInt.
 ECPInt:  NShTT=    7875 NPrTT=   22768 LenC2=    7802 LenP2D=   18622.
 LDataN:  DoStor=T MaxTD1= 6 Len=  172
 NBasis=   289 RedAO= T EigKep=  7.93D-05  NBF=   289
 NBsUse=   289 1.00D-06 EigRej= -1.00D+00 NBFU=   289
 ExpMin= 9.52D-02 ExpMax= 1.36D+04 ExpMxC= 4.63D+02 IAcc=3 IRadAn=         5 AccDes= 0.00D+00
 Harris functional with IExCor=  402 and IRadAn=       5 diagonalized for initial guess.
 HarFok:  IExCor=  402 AccDes= 0.00D+00 IRadAn=         5 IDoV= 1 UseB2=F ITyADJ=14
 ICtDFT=  3500011 ScaDFX=  1.000000  1.000000  1.000000  1.000000
 FoFCou: FMM=F IPFlag=           0 FMFlag=      100000 FMFlg1=           0
         NFxFlg=           0 DoJE=T BraDBF=F KetDBF=T FulRan=T
         wScrn=  0.000000 ICntrl=       500 IOpCl=  0 I1Cent=   200000004 NGrid=           0
         NMat0=    1 NMatS0=      1 NMatT0=    0 NMatD0=    1 NMtDS0=    0 NMtDT0=    0
 Petite list used in FoFCou.
 Requested convergence on RMS density matrix=1.00D-08 within 128 cycles.
 Requested convergence on MAX density matrix=1.00D-06.
 Requested convergence on             energy=1.00D-06.
 No special actions if energy rises.
 Integral accuracy reduced to 1.0D-05 until final iterations.
 Initial convergence to 1.0D-05 achieved.  Increase integral accuracy.
 SCF Done:  E(RB3LYP) =  -274.024247419     A.U. after   13 cycles
            NFock= 13  Conv=0.57D-08     -V/T= 2.0057

 **********************************************************************

            Population analysis using the SCF Density.

 **********************************************************************

 Orbital symmetries:
       Occupied  (A) (A) (A) (A) (A) (A) (A) (A) (A) (A) (A) (A)
                 (A) (A) (A) (A) (A) (A) (A) (A) (A) (A) (A) (A)
                 (A) (A) (A)
       Virtual   (A) (A) (A) (A) (A) (A) (A) (A) (A) (A) (A) (A)
                 (A) (A) (A) (A) (A) (A) (A) (A) (A) (A) (A) (A)
                 (A) (A) (A) (A) (A) (A) (A) (A) (A) (A) (A) (A)
                 (A) (A) (A) (A) (A) (A) (A) (A) (A) (A) (A) (A)
                 (A) (A) (A) (A) (A) (A) (A) (A) (A) (A) (A) (A)
                 (A) (A) (A) (A) (A) (A) (A) (A) (A) (A) (A) (A)
                 (A) (A) (A) (A) (A) (A) (A) (A) (A) (A) (A) (A)
                 (A) (A) (A) (A) (A) (A) (A) (A) (A) (A) (A) (A)
                 (A) (A) (A) (A) (A) (A) (A) (A) (A) (A) (A) (A)
                 (A) (A) (A) (A) (A) (A) (A) (A) (A) (A) (A) (A)
                 (A) (A) (A) (A) (A) (A) (A) (A) (A) (A) (A) (A)
                 (A) (A) (A) (A) (A) (A) (A) (A) (A) (A) (A) (A)
                 (A) (A) (A) (A) (A) (A) (A) (A) (A) (A) (A) (A)
                 (A) (A) (A) (A) (A) (A) (A) (A) (A) (A) (A) (A)
                 (A) (A) (A) (A) (A) (A) (A) (A) (A) (A) (A) (A)
                 (A) (A) (A) (A) (A) (A) (A) (A) (A) (A) (A) (A)
                 (A) (A) (A) (A) (A) (A) (A) (A) (A) (A) (A) (A)
                 (A) (A) (A) (A) (A) (A) (A) (A) (A) (A) (A) (A)
                 (A) (A) (A) (A) (A) (A) (A) (A) (A) (A) (A) (A)
                 (A) (A) (A) (A) (A) (A) (A) (A) (A) (A) (A) (A)
                 (A) (A) (A) (A) (A) (A) (A) (A) (A) (A) (A) (A)
                 (A) (A) (A) (A) (A) (A) (A) (A) (A) (A)
 The electronic state is 1-A.
 Alpha  occ. eigenvalues --  -10.18558 -10.18229 -10.18033 -10.17840 -10.17816
 Alpha  occ. eigenvalues --  -10.16054 -10.15714  -0.92598  -0.79436  -0.69268
 Alpha  occ. eigenvalues --   -0.68102  -0.61974  -0.57559  -0.53960  -0.49761
 Alpha  occ. eigenvalues --   -0.45807  -0.43631  -0.43154  -0.40764  -0.38831
 Alpha  occ. eigenvalues --   -0.37755  -0.36626  -0.34694  -0.34597  -0.30870
 Alpha  occ. eigenvalues --   -0.29947  -0.24102
 Alpha virt. eigenvalues --    0.03330   0.05390   0.06016   0.07048   0.08135
 Alpha virt. eigenvalues --    0.09024   0.10095   0.10754   0.10981   0.11383
 Alpha virt. eigenvalues --    0.12972   0.13844   0.14481   0.14982   0.15363
 Alpha virt. eigenvalues --    0.16736   0.17189   0.18291   0.19387   0.20214
 Alpha virt. eigenvalues --    0.21661   0.24631   0.24974   0.25659   0.27448
 Alpha virt. eigenvalues --    0.27947   0.30350   0.31936   0.33347   0.36036
 Alpha virt. eigenvalues --    0.36892   0.37550   0.38156   0.39165   0.39969
 Alpha virt. eigenvalues --    0.40362   0.41236   0.42237   0.42822   0.43657
 Alpha virt. eigenvalues --    0.43760   0.45033   0.45662   0.46285   0.46396
 Alpha virt. eigenvalues --    0.47465   0.47946   0.48499   0.50007   0.51018
 Alpha virt. eigenvalues --    0.52678   0.52989   0.53862   0.58657   0.59883
 Alpha virt. eigenvalues --    0.62612   0.64458   0.66112   0.68817   0.70893
 Alpha virt. eigenvalues --    0.76527   0.79010   0.80322   0.82762   0.84905
 Alpha virt. eigenvalues --    0.88091   0.88410   0.90819   0.93476   0.93905
 Alpha virt. eigenvalues --    0.95443   0.96777   0.99330   1.01370   1.02692
 Alpha virt. eigenvalues --    1.04353   1.05561   1.06655   1.08277   1.10236
 Alpha virt. eigenvalues --    1.12043   1.13041   1.15527   1.16014   1.17812
 Alpha virt. eigenvalues --    1.18803   1.19601   1.22588   1.25965   1.26765
 Alpha virt. eigenvalues --    1.28789   1.33409   1.35716   1.38025   1.42847
 Alpha virt. eigenvalues --    1.46525   1.50137   1.51478   1.52798   1.54940
 Alpha virt. eigenvalues --    1.55317   1.56109   1.56998   1.58786   1.60162
 Alpha virt. eigenvalues --    1.61084   1.62950   1.63547   1.65180   1.67362
 Alpha virt. eigenvalues --    1.71966   1.73814   1.75204   1.75538   1.78900
 Alpha virt. eigenvalues --    1.81315   1.83676   1.85419   1.91303   1.91861
 Alpha virt. eigenvalues --    1.94849   1.96606   1.99512   2.00165   2.02030
 Alpha virt. eigenvalues --    2.03239   2.06642   2.09666   2.12788   2.15146
 Alpha virt. eigenvalues --    2.15949   2.17321   2.21459   2.23699   2.26585
 Alpha virt. eigenvalues --    2.28207   2.30563   2.34319   2.34563   2.35235
 Alpha virt. eigenvalues --    2.36305   2.39079   2.41359   2.42493   2.44277
 Alpha virt. eigenvalues --    2.46465   2.47385   2.49917   2.51313   2.52350
 Alpha virt. eigenvalues --    2.53773   2.55276   2.56180   2.58139   2.59972
 Alpha virt. eigenvalues --    2.61575   2.62096   2.62957   2.65725   2.66274
 Alpha virt. eigenvalues --    2.68859   2.69740   2.70577   2.72226   2.75742
 Alpha virt. eigenvalues --    2.78067   2.78627   2.80518   2.84282   2.86137
 Alpha virt. eigenvalues --    2.88375   2.93329   2.95424   2.98409   2.98681
 Alpha virt. eigenvalues --    3.01482   3.02731   3.03013   3.04886   3.08059
 Alpha virt. eigenvalues --    3.11314   3.11831   3.13897   3.15820   3.16212
 Alpha virt. eigenvalues --    3.17581   3.18252   3.22609   3.23204   3.25815
 Alpha virt. eigenvalues --    3.28402   3.29136   3.32264   3.32776   3.33388
 Alpha virt. eigenvalues --    3.36721   3.37295   3.39338   3.43403   3.44253
 Alpha virt. eigenvalues --    3.46358   3.48460   3.51867   3.53113   3.56190
 Alpha virt. eigenvalues --    3.58541   3.58678   3.62045   3.64274   3.65205
 Alpha virt. eigenvalues --    3.66064   3.68408   3.73437   3.76347   3.76737
 Alpha virt. eigenvalues --    3.83941   3.85873   3.87777   3.96779   3.98302
 Alpha virt. eigenvalues --    4.00278   4.00862   4.01946   4.07425   4.08055
 Alpha virt. eigenvalues --    4.10799   4.11790   4.13821   4.14867   4.18660
 Alpha virt. eigenvalues --    4.23655   4.26290   4.33030   4.35707   4.37365
 Alpha virt. eigenvalues --    4.39200   4.41020   4.42967   4.48390   4.51152
 Alpha virt. eigenvalues --    4.52695   4.57085   4.61506   4.67648   4.70947
 Alpha virt. eigenvalues --    4.72987   4.77025   4.80619   4.84827   4.94552
 Alpha virt. eigenvalues --    4.95213   5.00267   5.13594   5.14485   5.30444
 Alpha virt. eigenvalues --   22.32897  22.36427  22.38595  22.46259  22.47188
 Alpha virt. eigenvalues --   22.64701  22.98212
          Condensed to atoms (all electrons):
               1          2          3          4          5          6
     1  C    4.980490   0.332578  -0.056136  -0.070529  -0.012771   0.023162
     2  C    0.332578   4.925352   0.304746   0.324989  -0.036511  -0.005530
     3  C   -0.056136   0.304746   4.987158  -0.046309   0.014393  -0.013723
     4  C   -0.070529   0.324989  -0.046309   5.312315   0.285972   0.124552
     5  C   -0.012771  -0.036511   0.014393   0.285972   4.950538   0.220816
     6  C    0.023162  -0.005530  -0.013723   0.124552   0.220816   5.277840
     7  C   -0.018387  -0.031060   0.001353   0.279993  -0.012108   0.199051
     8  H    0.410692  -0.056933  -0.003712   0.019277   0.000595  -0.001573
     9  H    0.398266  -0.023477  -0.008441  -0.014824   0.000258  -0.000922
    10  H    0.409765  -0.040449   0.010891  -0.006837   0.003182  -0.000354
    11  H   -0.054017   0.406278  -0.047247  -0.045714  -0.003216  -0.018218
    12  H   -0.007597  -0.028330   0.400046  -0.013540  -0.000360  -0.001356
    13  H   -0.004395  -0.044117   0.406723   0.013398  -0.000754   0.000044
    14  H    0.011556  -0.050240   0.414569  -0.001575  -0.000524   0.007334
    15  H   -0.001410  -0.004919   0.000765  -0.038227   0.429797  -0.039844
    16  H    0.002137   0.005848  -0.000859  -0.032652   0.355558   0.003278
    17  H   -0.000035  -0.003907   0.001210  -0.010622  -0.029953   0.410658
    18  H   -0.001013  -0.005960   0.002199  -0.041848   0.016047  -0.035848
    19  H    0.002180   0.005486  -0.000658  -0.030710  -0.037310   0.003699
               7          8          9         10         11         12
     1  C   -0.018387   0.410692   0.398266   0.409765  -0.054017  -0.007597
     2  C   -0.031060  -0.056933  -0.023477  -0.040449   0.406278  -0.028330
     3  C    0.001353  -0.003712  -0.008441   0.010891  -0.047247   0.400046
     4  C    0.279993   0.019277  -0.014824  -0.006837  -0.045714  -0.013540
     5  C   -0.012108   0.000595   0.000258   0.003182  -0.003216  -0.000360
     6  C    0.199051  -0.001573  -0.000922  -0.000354  -0.018218  -0.001356
     7  C    4.983043   0.000615   0.002915   0.000393   0.015114   0.005743
     8  H    0.000615   0.580487  -0.026699  -0.025708  -0.004379  -0.000260
     9  H    0.002915  -0.026699   0.578007  -0.024505   0.009685   0.006548
    10  H    0.000393  -0.025708  -0.024505   0.567796  -0.005179  -0.000210
    11  H    0.015114  -0.004379   0.009685  -0.005179   0.693777   0.009865
    12  H    0.005743  -0.000260   0.006548  -0.000210   0.009865   0.577930
    13  H    0.000385   0.003446  -0.000182  -0.000169  -0.006086  -0.024820
    14  H   -0.005389  -0.000194  -0.000250  -0.000478  -0.005608  -0.028484
    15  H    0.018096   0.000056   0.000048   0.000219   0.004893   0.000011
    16  H   -0.039650  -0.000102  -0.000037  -0.000349  -0.000786   0.000012
    17  H   -0.031454   0.000004   0.000032   0.000003   0.001729   0.000273
    18  H    0.437365   0.000039   0.000065  -0.000006   0.000123  -0.000536
    19  H    0.349546  -0.000087  -0.000468  -0.000010  -0.000700  -0.000205
              13         14         15         16         17         18
     1  C   -0.004395   0.011556  -0.001410   0.002137  -0.000035  -0.001013
     2  C   -0.044117  -0.050240  -0.004919   0.005848  -0.003907  -0.005960
     3  C    0.406723   0.414569   0.000765  -0.000859   0.001210   0.002199
     4  C    0.013398  -0.001575  -0.038227  -0.032652  -0.010622  -0.041848
     5  C   -0.000754  -0.000524   0.429797   0.355558  -0.029953   0.016047
     6  C    0.000044   0.007334  -0.039844   0.003278   0.410658  -0.035848
     7  C    0.000385  -0.005389   0.018096  -0.039650  -0.031454   0.437365
     8  H    0.003446  -0.000194   0.000056  -0.000102   0.000004   0.000039
     9  H   -0.000182  -0.000250   0.000048  -0.000037   0.000032   0.000065
    10  H   -0.000169  -0.000478   0.000219  -0.000349   0.000003  -0.000006
    11  H   -0.006086  -0.005608   0.004893  -0.000786   0.001729   0.000123
    12  H   -0.024820  -0.028484   0.000011   0.000012   0.000273  -0.000536
    13  H    0.569426  -0.024117  -0.000034   0.000019  -0.000176   0.000101
    14  H   -0.024117   0.570577  -0.000077   0.000053   0.001087  -0.000629
    15  H   -0.000034  -0.000077   0.592165  -0.043177  -0.001924  -0.000687
    16  H    0.000019   0.000053  -0.043177   0.649150   0.000519  -0.000813
    17  H   -0.000176   0.001087  -0.001924   0.000519   0.553213  -0.001962
    18  H    0.000101  -0.000629  -0.000687  -0.000813  -0.001962   0.581651
    19  H    0.000010   0.000274  -0.001021   0.023141   0.000546  -0.042258
              19
     1  C    0.002180
     2  C    0.005486
     3  C   -0.000658
     4  C   -0.030710
     5  C   -0.037310
     6  C    0.003699
     7  C    0.349546
     8  H   -0.000087
     9  H   -0.000468
    10  H   -0.000010
    11  H   -0.000700
    12  H   -0.000205
    13  H    0.000010
    14  H    0.000274
    15  H   -0.001021
    16  H    0.023141
    17  H    0.000546
    18  H   -0.042258
    19  H    0.651312
 Mulliken charges:
               1
     1  C   -0.344536
     2  C    0.026156
     3  C   -0.366968
     4  C   -0.007109
     5  C   -0.143647
     6  C   -0.153066
     7  C   -0.155565
     8  H    0.104435
     9  H    0.103981
    10  H    0.112005
    11  H    0.049686
    12  H    0.105272
    13  H    0.111300
    14  H    0.112115
    15  H    0.085269
    16  H    0.078707
    17  H    0.110760
    18  H    0.093970
    19  H    0.077236
 Sum of Mulliken charges =  -0.00000
 Mulliken charges with hydrogens summed into heavy atoms:
               1
     1  C   -0.024116
     2  C    0.075843
     3  C   -0.038282
     4  C   -0.007109
     5  C    0.020329
     6  C   -0.042306
     7  C    0.015641
 Electronic spatial extent (au):  <R**2>=            814.0665
 Charge=             -0.0000 electrons
 Dipole moment (field-independent basis, Debye):
    X=             -0.6086    Y=              0.2098    Z=             -0.4898  Tot=              0.8089
 Quadrupole moment (field-independent basis, Debye-Ang):
   XX=            -47.8959   YY=            -45.4708   ZZ=            -44.7741
   XY=             -0.3728   XZ=              0.1457   YZ=              0.3304
 Traceless Quadrupole moment (field-independent basis, Debye-Ang):
   XX=             -1.8490   YY=              0.5762   ZZ=              1.2728
   XY=             -0.3728   XZ=              0.1457   YZ=              0.3304
 Octapole moment (field-independent basis, Debye-Ang**2):
  XXX=             -9.9313  YYY=              0.6854  ZZZ=             -1.6758  XYY=              1.8630
  XXY=             -1.5262  XXZ=             -0.8428  XZZ=              1.2089  YZZ=              0.7467
  YYZ=             -1.2481  XYZ=             -1.7528
 Hexadecapole moment (field-independent basis, Debye-Ang**3):
 XXXX=           -694.0244 YYYY=           -311.9319 ZZZZ=           -173.2305 XXXY=             -5.4953
 XXXZ=              8.8937 YYYX=              0.8529 YYYZ=              1.4542 ZZZX=             -1.6068
 ZZZY=              1.7557 XXYY=           -168.1302 XXZZ=           -139.0885 YYZZ=            -78.4718
 XXYZ=             -2.8713 YYXZ=             -2.1306 ZZXY=             -0.2743
 N-N= 3.082911029451D+02 E-N=-1.250424398629D+03  KE= 2.724786372270D+02
 Unable to Open any file for archive entry.
 1\1\GINC-CFM067\SP\RB3LYP\def2TZVP\C7H12\EMMANOUS\06-Jun-2025\0\\# b3l
 yp/def2tzvp int(grid=ultrafine) symm=(follow,loose) EmpiricalDispersio
 n=GD3BJ\\b3lyp-d3bj optimized geometry using Gaussian\\0,1\C,0,-2.147808,0
 .29435,0.442686\C,0,-0.730906,0.792297,0.140375\C,0,-0.158312,1.576271
 ,1.321418\C,0,0.155691,-0.34607,-0.266014\C,0,0.445944,-0.895611,-1.62
 7187\C,0,1.553907,-0.4442,-0.727614\C,0,1.13266,-1.178022,0.507658\H,0
 ,-2.813529,1.125976,0.684038\H,0,-2.138474,-0.389723,1.294613\H,0,-2.5
 65044,-0.240648,-0.411804\H,0,-0.788769,1.470154,-0.720105\H,0,-0.1159
 06,0.954894,2.218721\H,0,-0.784242,2.441242,1.547674\H,0,0.850731,1.93
 5141,1.109737\H,0,0.199935,-0.249716,-2.464626\H,0,0.322242,-1.959198,
 -1.829844\H,0,2.306476,0.31345,-0.867803\H,0,1.47213,-0.774952,1.45548
 9\H,0,1.062187,-2.265209,0.483584\\Version=ES64L-G16RevC.01\State=1-A\
 HF=-274.0242474\RMSD=5.678e-09\Dipole=-0.0723062,0.3070668,0.042045\Qu
 adrupole=-0.7706624,0.2405531,0.5301093,0.6093094,0.6289892,-0.6324577
 \PG=C01 [X(C7H12)]\\@
 The archive entry for this job was punched.


 TIME GOES, YOU SAY?  AH NO!
 ALAS, TIME STAYS, WE GO.
    -- A. DOBSON (1840-1921)
 Job cpu time:       0 days  0 hours  5 minutes  5.1 seconds.
 Elapsed time:       0 days  0 hours  0 minutes 38.5 seconds.
 File lengths (MBytes):  RWF=     50 Int=      0 D2E=      0 Chk=      6 Scr=      1
 Normal termination of Gaussian 16 at Fri Jun  6 20:55:01 2025.
